                              Psi4 0.3.71 Driver

  ==> Input File <==

--------------------------------------------------------------------------
molecule {
  symmetry c1
  0 1
  O
  H 1 0.96
  H 1 0.96 2 104.5
}

psi4_io.set_specific_path(32,'.')
psi4_io.set_specific_retention(32,True)

set basis sto-3g
set reference rhf
energy('scf')
--------------------------------------------------------------------------

    Molecular point group: c1

    Geometry (in Angstrom), charge = 0, multiplicity = 1:

       Center              X                  Y                   Z               Mass
    ------------   -----------------  -----------------  -----------------  -----------------
           O          0.000000000000     0.000000000000    -0.065775570538    15.994914619560
           H          0.000000000000    -0.759061990794     0.521953018295     1.007825032070
           H          0.000000000000     0.759061990794     0.521953018295     1.007825032070

  Charge       = 0
  Multiplicity = 1
  Basis Set: STO-3G
  Basis Set:

    Orbital Energies (a.u.)
    -----------------------

    Doubly Occupied:

       1A    -20.242644     2A     -1.267015     3A     -0.616416
       4A     -0.452696     5A     -0.391057

  @DF-RHF Final Energy:   -74.96380016685303

   => Energetics <=

    Nuclear Repulsion Energy =              9.1681932603875715
    One-Electron Energy =                -122.3243320062466353
    Two-Electron Energy =                  38.1923385790060337
    DFT Exchange-Correlation Energy =       0.0000000000000000
    Empirical Dispersion Energy =           0.0000000000000000
    PCM Polarization Energy =               0.0000000000000000
    EFP Energy =                            0.0000000000000000
    Total Energy =                        -74.9638001668530336
