                              Psi4 0.3.71 Driver

  ==> Input File <==

--------------------------------------------------------------------------
molecule {
  symmetry c1
  0 1
  O
  H 1 0.9
  H 1 0.9 2 104.5
}

set basis sto-3g

energy('scf')

psi4.plugin('./plugin_main.so')

--------------------------------------------------------------------------

    Molecular point group: c1

    Geometry (in Angstrom), charge = 0, multiplicity = 1:

       Center              X                  Y                   Z               Mass
    ------------   -----------------  -----------------  -----------------  -----------------
           O          0.000000000000     0.000000000000    -0.061664597379    15.994914619560
           H          0.000000000000    -0.711620616369     0.489330954652     1.007825032070
           H          0.000000000000     0.711620616369     0.489330954652     1.007825032070

  Charge       = 0
  Multiplicity = 1
  Basis Set: STO-3G
  Basis Set:

    Orbital Energies (a.u.)
    -----------------------

    Doubly Occupied:

       1A    -20.236736     2A     -1.300497     3A     -0.649305
       4A     -0.460187     5A     -0.396283

  @DF-RHF Final Energy:   -74.94550962084351

   => Energetics <=

    Nuclear Repulsion Energy =              9.7794061444134091
    One-Electron Energy =                -123.3638170711215736
    Two-Electron Energy =                  38.6389013058646213
    DFT Exchange-Correlation Energy =       0.0000000000000000
    Empirical Dispersion Energy =           0.0000000000000000
    PCM Polarization Energy =               0.0000000000000000
    EFP Energy =                            0.0000000000000000
    Total Energy =                        -74.9455096208435378
